TITLE = "PIV"
VARIABLES = "x", "y", "u", "v"
ZONE T="0", I=75, J=42
1.600000000000000000e+01 1.600000000000000000e+01 -9.509868621826171875e-01 1.633894157409667969e+01
3.200000000000000000e+01 1.600000000000000000e+01 -1.145266652107238770e+00 1.642753791809082031e+01
4.800000000000000000e+01 1.600000000000000000e+01 -1.398399233818054199e+00 1.651023101806640625e+01
6.400000000000000000e+01 1.600000000000000000e+01 -1.715216994285583496e+00 1.658856773376464844e+01
8.000000000000000000e+01 1.600000000000000000e+01 -2.132254362106323242e+00 1.667428016662597656e+01
9.600000000000000000e+01 1.600000000000000000e+01 -2.717171192169189453e+00 1.677667427062988281e+01
1.120000000000000000e+02 1.600000000000000000e+01 -3.571527719497680664e+00 1.693733596801757812e+01
1.280000000000000000e+02 1.600000000000000000e+01 -4.376102447509765625e+00 1.701224708557128906e+01
1.440000000000000000e+02 1.600000000000000000e+01 -5.088764667510986328e+00 1.733825492858886719e+01
1.600000000000000000e+02 1.600000000000000000e+01 -5.970336914062500000e+00 1.769232177734375000e+01
1.760000000000000000e+02 1.600000000000000000e+01 -7.108764648437500000e+00 1.797174835205078125e+01
1.920000000000000000e+02 1.600000000000000000e+01 -8.603544235229492188e+00 1.764088630676269531e+01
2.080000000000000000e+02 1.600000000000000000e+01 0.000000000000000000e+00 0.000000000000000000e+00
2.240000000000000000e+02 1.600000000000000000e+01 0.000000000000000000e+00 0.000000000000000000e+00
2.400000000000000000e+02 1.600000000000000000e+01 0.000000000000000000e+00 0.000000000000000000e+00
2.560000000000000000e+02 1.600000000000000000e+01 0.000000000000000000e+00 0.000000000000000000e+00
2.720000000000000000e+02 1.600000000000000000e+01 0.000000000000000000e+00 0.000000000000000000e+00
2.880000000000000000e+02 1.600000000000000000e+01 4.419024467468261719e+00 1.827356719970703125e+01
3.040000000000000000e+02 1.600000000000000000e+01 4.169933319091796875e+00 1.750649070739746094e+01
3.200000000000000000e+02 1.600000000000000000e+01 3.783708572387695312e+00 1.700293731689453125e+01
3.360000000000000000e+02 1.600000000000000000e+01 3.408213376998901367e+00 1.669032096862792969e+01
3.520000000000000000e+02 1.600000000000000000e+01 3.377496719360351562e+00 1.606865119934082031e+01
3.680000000000000000e+02 1.600000000000000000e+01 2.629663944244384766e+00 1.631154441833496094e+01
3.840000000000000000e+02 1.600000000000000000e+01 2.212656736373901367e+00 1.624180221557617188e+01
4.000000000000000000e+02 1.600000000000000000e+01 1.860357284545898438e+00 1.619356918334960938e+01
4.160000000000000000e+02 1.600000000000000000e+01 1.563919782638549805e+00 1.619725036621093750e+01
4.320000000000000000e+02 1.600000000000000000e+01 1.307932734489440918e+00 1.620947456359863281e+01
4.480000000000000000e+02 1.600000000000000000e+01 1.064572930335998535e+00 1.617653465270996094e+01
4.640000000000000000e+02 1.600000000000000000e+01 8.676548004150390625e-01 1.614056587219238281e+01
4.800000000000000000e+02 1.600000000000000000e+01 7.413202524185180664e-01 1.613014221191406250e+01
4.960000000000000000e+02 1.600000000000000000e+01 6.310604214668273926e-01 1.613791847229003906e+01
5.120000000000000000e+02 1.600000000000000000e+01 5.427265167236328125e-01 1.612272834777832031e+01
5.280000000000000000e+02 1.600000000000000000e+01 4.996631443500518799e-01 1.607220458984375000e+01
5.440000000000000000e+02 1.600000000000000000e+01 4.917701780796051025e-01 1.602277374267578125e+01
5.600000000000000000e+02 1.600000000000000000e+01 4.964053332805633545e-01 1.600675392150878906e+01
5.760000000000000000e+02 1.600000000000000000e+01 4.901806712150573730e-01 1.598555088043212891e+01
5.920000000000000000e+02 1.600000000000000000e+01 4.504103660583496094e-01 1.597122097015380859e+01
6.080000000000000000e+02 1.600000000000000000e+01 3.969646692276000977e-01 1.600269699096679688e+01
6.240000000000000000e+02 1.600000000000000000e+01 3.467025160789489746e-01 1.601703834533691406e+01
6.400000000000000000e+02 1.600000000000000000e+01 2.829514145851135254e-01 1.599215126037597656e+01
6.560000000000000000e+02 1.600000000000000000e+01 2.102922201156616211e-01 1.596911907196044922e+01
6.720000000000000000e+02 1.600000000000000000e+01 1.783218085765838623e-01 1.593116283416748047e+01
1.600000000000000000e+01 3.200000000000000000e+01 -8.616638183593750000e-01 1.636407279968261719e+01
3.200000000000000000e+01 3.200000000000000000e+01 -8.513202667236328125e-01 1.646193122863769531e+01
4.800000000000000000e+01 3.200000000000000000e+01 -9.834747314453125000e-01 1.647810935974121094e+01
6.400000000000000000e+01 3.200000000000000000e+01 -1.111368179321289062e+00 1.655536079406738281e+01
8.000000000000000000e+01 3.200000000000000000e+01 -1.404434204101562500e+00 1.666013908386230469e+01
9.600000000000000000e+01 3.200000000000000000e+01 -1.771955490112304688e+00 1.678692436218261719e+01
1.120000000000000000e+02 3.200000000000000000e+01 -2.265182495117187500e+00 1.690177726745605469e+01
1.280000000000000000e+02 3.200000000000000000e+01 -2.830823898315429688e+00 1.692983627319335938e+01
1.440000000000000000e+02 3.200000000000000000e+01 -3.693031311035156250e+00 1.688699150085449219e+01
1.600000000000000000e+02 3.200000000000000000e+01 -5.421903610229492188e+00 1.712118530273437500e+01
1.760000000000000000e+02 3.200000000000000000e+01 -7.060722351074218750e+00 1.682679557800292969e+01
1.920000000000000000e+02 3.200000000000000000e+01 -7.486265659332275391e+00 1.841890335083007812e+01
2.080000000000000000e+02 3.200000000000000000e+01 0.000000000000000000e+00 0.000000000000000000e+00
2.240000000000000000e+02 3.200000000000000000e+01 0.000000000000000000e+00 0.000000000000000000e+00
2.400000000000000000e+02 3.200000000000000000e+01 0.000000000000000000e+00 0.000000000000000000e+00
2.560000000000000000e+02 3.200000000000000000e+01 0.000000000000000000e+00 0.000000000000000000e+00
2.720000000000000000e+02 3.200000000000000000e+01 3.360523700714111328e+00 2.078222656250000000e+01
2.880000000000000000e+02 3.200000000000000000e+01 4.044891357421875000e+00 1.881885147094726562e+01
3.040000000000000000e+02 3.200000000000000000e+01 5.217081069946289062e+00 1.457375526428222656e+01
3.200000000000000000e+02 3.200000000000000000e+01 3.480245590209960938e+00 1.744825744628906250e+01
3.360000000000000000e+02 3.200000000000000000e+01 3.050338745117187500e+00 1.672646903991699219e+01
3.520000000000000000e+02 3.200000000000000000e+01 2.438091278076171875e+00 1.645450019836425781e+01
3.680000000000000000e+02 3.200000000000000000e+01 1.972700119018554688e+00 1.635992240905761719e+01
3.840000000000000000e+02 3.200000000000000000e+01 1.882617950439453125e+00 1.664888381958007812e+01
4.000000000000000000e+02 3.200000000000000000e+01 1.638120651245117188e+00 1.649103164672851562e+01
4.160000000000000000e+02 3.200000000000000000e+01 1.322731018066406250e+00 1.632276725769042969e+01
4.320000000000000000e+02 3.200000000000000000e+01 1.185815811157226562e+00 1.612205505371093750e+01
4.480000000000000000e+02 3.200000000000000000e+01 1.035684585571289062e+00 1.610515785217285156e+01
4.640000000000000000e+02 3.200000000000000000e+01 8.027439117431640625e-01 1.634019088745117188e+01
4.800000000000000000e+02 3.200000000000000000e+01 5.870647430419921875e-01 1.628745651245117188e+01
4.960000000000000000e+02 3.200000000000000000e+01 3.516006469726562500e-01 1.618173980712890625e+01
5.120000000000000000e+02 3.200000000000000000e+01 3.005771636962890625e-01 1.613179779052734375e+01
5.280000000000000000e+02 3.200000000000000000e+01 4.330062866210937500e-01 1.606674957275390625e+01
5.440000000000000000e+02 3.200000000000000000e+01 4.351062774658203125e-01 1.591814804077148438e+01
5.600000000000000000e+02 3.200000000000000000e+01 4.482936859130859375e-01 1.582561969757080078e+01
5.760000000000000000e+02 3.200000000000000000e+01 5.093574523925781250e-01 1.585528659820556641e+01
5.920000000000000000e+02 3.200000000000000000e+01 5.516033172607421875e-01 1.579405689239501953e+01
6.080000000000000000e+02 3.200000000000000000e+01 5.101032257080078125e-01 1.586572074890136719e+01
6.240000000000000000e+02 3.200000000000000000e+01 3.628005981445312500e-01 1.588311195373535156e+01
6.400000000000000000e+02 3.200000000000000000e+01 1.722164154052734375e-01 1.602310943603515625e+01
6.560000000000000000e+02 3.200000000000000000e+01 3.101348876953125000e-02 1.620953178405761719e+01
6.720000000000000000e+02 3.200000000000000000e+01 7.081604003906250000e-02 1.599054718017578125e+01
1.600000000000000000e+01 4.800000000000000000e+01 -7.374229431152343750e-01 1.641532135009765625e+01
3.200000000000000000e+01 4.800000000000000000e+01 -8.621082305908203125e-01 1.646660995483398438e+01
4.800000000000000000e+01 4.800000000000000000e+01 -9.656295776367187500e-01 1.662969207763671875e+01
6.400000000000000000e+01 4.800000000000000000e+01 -1.100120544433593750e+00 1.678096771240234375e+01
8.000000000000000000e+01 4.800000000000000000e+01 -1.324331283569335938e+00 1.699801063537597656e+01
9.600000000000000000e+01 4.800000000000000000e+01 -1.750000000000000000e+00 1.723859024047851562e+01
1.120000000000000000e+02 4.800000000000000000e+01 -2.211706161499023438e+00 1.744012069702148438e+01
1.280000000000000000e+02 4.800000000000000000e+01 -2.792940139770507812e+00 1.784228134155273438e+01
1.440000000000000000e+02 4.800000000000000000e+01 -3.672338485717773438e+00 1.855358314514160156e+01
1.600000000000000000e+02 4.800000000000000000e+01 -4.878511428833007812e+00 1.943907928466796875e+01
1.760000000000000000e+02 4.800000000000000000e+01 -5.128865718841552734e+00 1.935089111328125000e+01
1.920000000000000000e+02 4.800000000000000000e+01 -6.368987083435058594e+00 1.919692230224609375e+01
2.080000000000000000e+02 4.800000000000000000e+01 0.000000000000000000e+00 0.000000000000000000e+00
2.240000000000000000e+02 4.800000000000000000e+01 0.000000000000000000e+00 0.000000000000000000e+00
2.400000000000000000e+02 4.800000000000000000e+01 0.000000000000000000e+00 0.000000000000000000e+00
2.560000000000000000e+02 4.800000000000000000e+01 0.000000000000000000e+00 0.000000000000000000e+00
2.720000000000000000e+02 4.800000000000000000e+01 2.904082059860229492e+00 2.146616363525390625e+01
2.880000000000000000e+02 4.800000000000000000e+01 -8.001041412353515625e-01 2.386926269531250000e+01
3.040000000000000000e+02 4.800000000000000000e+01 4.917518615722656250e+00 1.755805015563964844e+01
3.200000000000000000e+02 4.800000000000000000e+01 3.718446731567382812e+00 1.707739639282226562e+01
3.360000000000000000e+02 4.800000000000000000e+01 2.921878814697265625e+00 1.711816596984863281e+01
3.520000000000000000e+02 4.800000000000000000e+01 2.447362899780273438e+00 1.694399261474609375e+01
3.680000000000000000e+02 4.800000000000000000e+01 2.120246887207031250e+00 1.678830337524414062e+01
3.840000000000000000e+02 4.800000000000000000e+01 1.802904129028320312e+00 1.683031845092773438e+01
4.000000000000000000e+02 4.800000000000000000e+01 1.508237838745117188e+00 1.681308364868164062e+01
4.160000000000000000e+02 4.800000000000000000e+01 1.210453033447265625e+00 1.657284927368164062e+01
4.320000000000000000e+02 4.800000000000000000e+01 1.067544937133789062e+00 1.631624603271484375e+01
4.480000000000000000e+02 4.800000000000000000e+01 8.862934112548828125e-01 1.628683090209960938e+01
4.640000000000000000e+02 4.800000000000000000e+01 6.997756958007812500e-01 1.639976692199707031e+01
4.800000000000000000e+02 4.800000000000000000e+01 5.755138397216796875e-01 1.635377311706542969e+01
4.960000000000000000e+02 4.800000000000000000e+01 5.079765319824218750e-01 1.626957511901855469e+01
5.120000000000000000e+02 4.800000000000000000e+01 5.080070495605468750e-01 1.626926231384277344e+01
5.280000000000000000e+02 4.800000000000000000e+01 5.452365875244140625e-01 1.628052711486816406e+01
5.440000000000000000e+02 4.800000000000000000e+01 4.729309082031250000e-01 1.616406822204589844e+01
5.600000000000000000e+02 4.800000000000000000e+01 4.239406585693359375e-01 1.603054809570312500e+01
5.760000000000000000e+02 4.800000000000000000e+01 4.421405792236328125e-01 1.601923179626464844e+01
5.920000000000000000e+02 4.800000000000000000e+01 4.532051086425781250e-01 1.606940078735351562e+01
6.080000000000000000e+02 4.800000000000000000e+01 3.436203002929687500e-01 1.622180938720703125e+01
6.240000000000000000e+02 4.800000000000000000e+01 3.474617004394531250e-01 1.611140060424804688e+01
6.400000000000000000e+02 4.800000000000000000e+01 3.535366058349609375e-01 1.604529571533203125e+01
6.560000000000000000e+02 4.800000000000000000e+01 2.449760437011718750e-01 1.607247161865234375e+01
6.720000000000000000e+02 4.800000000000000000e+01 1.975269317626953125e-01 1.582418918609619141e+01
1.600000000000000000e+01 6.400000000000000000e+01 -6.169605255126953125e-01 1.654499053955078125e+01
3.200000000000000000e+01 6.400000000000000000e+01 -6.914749145507812500e-01 1.663733863830566406e+01
4.800000000000000000e+01 6.400000000000000000e+01 -7.753181457519531250e-01 1.683209991455078125e+01
6.400000000000000000e+01 6.400000000000000000e+01 -9.196758270263671875e-01 1.703398513793945312e+01
8.000000000000000000e+01 6.400000000000000000e+01 -1.080020904541015625e+00 1.727213478088378906e+01
9.600000000000000000e+01 6.400000000000000000e+01 -1.360380172729492188e+00 1.760130882263183594e+01
1.120000000000000000e+02 6.400000000000000000e+01 -1.734216690063476562e+00 1.794801521301269531e+01
1.280000000000000000e+02 6.400000000000000000e+01 -2.190162658691406250e+00 1.860628318786621094e+01
1.440000000000000000e+02 6.400000000000000000e+01 -2.952100753784179688e+00 1.974875259399414062e+01
1.600000000000000000e+02 6.400000000000000000e+01 -3.750122070312500000e+00 2.093268394470214844e+01
1.760000000000000000e+02 6.400000000000000000e+01 -4.138916015625000000e+00 2.004046249389648438e+01
1.920000000000000000e+02 6.400000000000000000e+01 0.000000000000000000e+00 0.000000000000000000e+00
2.080000000000000000e+02 6.400000000000000000e+01 0.000000000000000000e+00 0.000000000000000000e+00
2.240000000000000000e+02 6.400000000000000000e+01 0.000000000000000000e+00 0.000000000000000000e+00
2.400000000000000000e+02 6.400000000000000000e+01 0.000000000000000000e+00 0.000000000000000000e+00
2.560000000000000000e+02 6.400000000000000000e+01 0.000000000000000000e+00 0.000000000000000000e+00
2.720000000000000000e+02 6.400000000000000000e+01 2.447640180587768555e+00 2.215010261535644531e+01
2.880000000000000000e+02 6.400000000000000000e+01 3.296626091003417969e+00 1.990942192077636719e+01
3.040000000000000000e+02 6.400000000000000000e+01 4.367738723754882812e+00 1.847047424316406250e+01
3.200000000000000000e+02 6.400000000000000000e+01 3.387975692749023438e+00 1.791501235961914062e+01
3.360000000000000000e+02 6.400000000000000000e+01 2.679759979248046875e+00 1.766660118103027344e+01
3.520000000000000000e+02 6.400000000000000000e+01 2.317350387573242188e+00 1.737421607971191406e+01
3.680000000000000000e+02 6.400000000000000000e+01 2.011209487915039062e+00 1.713261604309082031e+01
3.840000000000000000e+02 6.400000000000000000e+01 1.628084182739257812e+00 1.696402168273925781e+01
4.000000000000000000e+02 6.400000000000000000e+01 1.360563278198242188e+00 1.697230148315429688e+01
4.160000000000000000e+02 6.400000000000000000e+01 1.100055694580078125e+00 1.679928779602050781e+01
4.320000000000000000e+02 6.400000000000000000e+01 9.457092285156250000e-01 1.658964157104492188e+01
4.480000000000000000e+02 6.400000000000000000e+01 8.095836639404296875e-01 1.643154144287109375e+01
4.640000000000000000e+02 6.400000000000000000e+01 6.661033630371093750e-01 1.635076713562011719e+01
4.800000000000000000e+02 6.400000000000000000e+01 6.137256622314453125e-01 1.631650352478027344e+01
4.960000000000000000e+02 6.400000000000000000e+01 5.891189575195312500e-01 1.625358772277832031e+01
5.120000000000000000e+02 6.400000000000000000e+01 5.333671569824218750e-01 1.623190307617187500e+01
5.280000000000000000e+02 6.400000000000000000e+01 5.132026672363281250e-01 1.627374839782714844e+01
5.440000000000000000e+02 6.400000000000000000e+01 4.334411621093750000e-01 1.622673034667968750e+01
5.600000000000000000e+02 6.400000000000000000e+01 3.507614135742187500e-01 1.604784393310546875e+01
5.760000000000000000e+02 6.400000000000000000e+01 3.497505187988281250e-01 1.599541282653808594e+01
5.920000000000000000e+02 6.400000000000000000e+01 3.326168060302734375e-01 1.602295875549316406e+01
6.080000000000000000e+02 6.400000000000000000e+01 2.748661041259765625e-01 1.619204330444335938e+01
6.240000000000000000e+02 6.400000000000000000e+01 3.158969879150390625e-01 1.614427566528320312e+01
6.400000000000000000e+02 6.400000000000000000e+01 3.598842620849609375e-01 1.602915000915527344e+01
6.560000000000000000e+02 6.400000000000000000e+01 3.099079132080078125e-01 1.603023147583007812e+01
6.720000000000000000e+02 6.400000000000000000e+01 2.502975463867187500e-01 1.591099166870117188e+01
1.600000000000000000e+01 8.000000000000000000e+01 -5.193462371826171875e-01 1.662780952453613281e+01
3.200000000000000000e+01 8.000000000000000000e+01 -5.251426696777343750e-01 1.676486015319824219e+01
4.800000000000000000e+01 8.000000000000000000e+01 -5.688438415527343750e-01 1.694608116149902344e+01
6.400000000000000000e+01 8.000000000000000000e+01 -6.568202972412109375e-01 1.715445899963378906e+01
8.000000000000000000e+01 8.000000000000000000e+01 -7.205734252929687500e-01 1.741132354736328125e+01
9.600000000000000000e+01 8.000000000000000000e+01 -8.490333557128906250e-01 1.781560134887695312e+01
1.120000000000000000e+02 8.000000000000000000e+01 -1.073923110961914062e+00 1.828361701965332031e+01
1.280000000000000000e+02 8.000000000000000000e+01 -1.409210205078125000e+00 1.904219627380371094e+01
1.440000000000000000e+02 8.000000000000000000e+01 -1.865650177001953125e+00 2.013061714172363281e+01
1.600000000000000000e+02 8.000000000000000000e+01 -2.343330383300781250e+00 2.141959190368652344e+01
1.760000000000000000e+02 8.000000000000000000e+01 -1.062840819358825684e+00 1.855514335632324219e+01
1.920000000000000000e+02 8.000000000000000000e+01 0.000000000000000000e+00 0.000000000000000000e+00
2.080000000000000000e+02 8.000000000000000000e+01 0.000000000000000000e+00 0.000000000000000000e+00
2.240000000000000000e+02 8.000000000000000000e+01 0.000000000000000000e+00 0.000000000000000000e+00
2.400000000000000000e+02 8.000000000000000000e+01 0.000000000000000000e+00 0.000000000000000000e+00
2.560000000000000000e+02 8.000000000000000000e+01 0.000000000000000000e+00 0.000000000000000000e+00
2.720000000000000000e+02 8.000000000000000000e+01 1.481991529464721680e+00 2.064195060729980469e+01
2.880000000000000000e+02 8.000000000000000000e+01 4.369144439697265625e+00 1.992044258117675781e+01
3.040000000000000000e+02 8.000000000000000000e+01 3.494760513305664062e+00 1.941955566406250000e+01
3.200000000000000000e+02 8.000000000000000000e+01 2.797655105590820312e+00 1.877521514892578125e+01
3.360000000000000000e+02 8.000000000000000000e+01 2.306280136108398438e+00 1.821261596679687500e+01
3.520000000000000000e+02 8.000000000000000000e+01 2.116924285888671875e+00 1.769312858581542969e+01
3.680000000000000000e+02 8.000000000000000000e+01 1.814392089843750000e+00 1.741548156738281250e+01
3.840000000000000000e+02 8.000000000000000000e+01 1.497220993041992188e+00 1.733198165893554688e+01
4.000000000000000000e+02 8.000000000000000000e+01 1.250892639160156250e+00 1.713319778442382812e+01
4.160000000000000000e+02 8.000000000000000000e+01 1.056241989135742188e+00 1.693593597412109375e+01
4.320000000000000000e+02 8.000000000000000000e+01 9.190673828125000000e-01 1.675645256042480469e+01
4.480000000000000000e+02 8.000000000000000000e+01 8.239612579345703125e-01 1.657907104492187500e+01
4.640000000000000000e+02 8.000000000000000000e+01 7.409763336181640625e-01 1.640819549560546875e+01
4.800000000000000000e+02 8.000000000000000000e+01 6.872634887695312500e-01 1.628965187072753906e+01
4.960000000000000000e+02 8.000000000000000000e+01 6.151561737060546875e-01 1.618681144714355469e+01
5.120000000000000000e+02 8.000000000000000000e+01 4.832878112792968750e-01 1.621297264099121094e+01
5.280000000000000000e+02 8.000000000000000000e+01 4.417648315429687500e-01 1.626880836486816406e+01
5.440000000000000000e+02 8.000000000000000000e+01 3.976726531982421875e-01 1.610290527343750000e+01
5.600000000000000000e+02 8.000000000000000000e+01 3.056468963623046875e-01 1.605176353454589844e+01
5.760000000000000000e+02 8.000000000000000000e+01 2.857265472412109375e-01 1.602751159667968750e+01
5.920000000000000000e+02 8.000000000000000000e+01 2.674846649169921875e-01 1.600166702270507812e+01
6.080000000000000000e+02 8.000000000000000000e+01 2.415637969970703125e-01 1.601092147827148438e+01
6.240000000000000000e+02 8.000000000000000000e+01 2.996368408203125000e-01 1.599669456481933594e+01
6.400000000000000000e+02 8.000000000000000000e+01 3.510856628417968750e-01 1.596376514434814453e+01
6.560000000000000000e+02 8.000000000000000000e+01 3.115158081054687500e-01 1.598359489440917969e+01
6.720000000000000000e+02 8.000000000000000000e+01 2.634563446044921875e-01 1.592940807342529297e+01
1.600000000000000000e+01 9.600000000000000000e+01 -3.982353210449218750e-01 1.662955093383789062e+01
3.200000000000000000e+01 9.600000000000000000e+01 -4.173793792724609375e-01 1.672112655639648438e+01
4.800000000000000000e+01 9.600000000000000000e+01 -4.009704589843750000e-01 1.690612030029296875e+01
6.400000000000000000e+01 9.600000000000000000e+01 -3.861865997314453125e-01 1.713730049133300781e+01
8.000000000000000000e+01 9.600000000000000000e+01 -3.759613037109375000e-01 1.742807960510253906e+01
9.600000000000000000e+01 9.600000000000000000e+01 -3.833866119384765625e-01 1.787483978271484375e+01
1.120000000000000000e+02 9.600000000000000000e+01 -4.653015136718750000e-01 1.842738914489746094e+01
1.280000000000000000e+02 9.600000000000000000e+01 -5.238342285156250000e-01 1.921457290649414062e+01
1.440000000000000000e+02 9.600000000000000000e+01 -6.599617004394531250e-01 2.028239250183105469e+01
1.600000000000000000e+02 9.600000000000000000e+01 -7.896976470947265625e-01 2.135275650024414062e+01
1.760000000000000000e+02 9.600000000000000000e+01 4.679440259933471680e-01 1.927687644958496094e+01
1.920000000000000000e+02 9.600000000000000000e+01 0.000000000000000000e+00 0.000000000000000000e+00
2.080000000000000000e+02 9.600000000000000000e+01 0.000000000000000000e+00 0.000000000000000000e+00
2.240000000000000000e+02 9.600000000000000000e+01 0.000000000000000000e+00 0.000000000000000000e+00
2.400000000000000000e+02 9.600000000000000000e+01 0.000000000000000000e+00 0.000000000000000000e+00
2.560000000000000000e+02 9.600000000000000000e+01 0.000000000000000000e+00 0.000000000000000000e+00
2.720000000000000000e+02 9.600000000000000000e+01 4.368232727050781250e+00 2.022444725036621094e+01
2.880000000000000000e+02 9.600000000000000000e+01 2.915907621383666992e+00 2.044472885131835938e+01
3.040000000000000000e+02 9.600000000000000000e+01 2.416023254394531250e+00 1.990733528137207031e+01
3.200000000000000000e+02 9.600000000000000000e+01 2.083564758300781250e+00 1.929590415954589844e+01
3.360000000000000000e+02 9.600000000000000000e+01 1.858974456787109375e+00 1.856745910644531250e+01
3.520000000000000000e+02 9.600000000000000000e+01 1.672483444213867188e+00 1.795027160644531250e+01
3.680000000000000000e+02 9.600000000000000000e+01 1.441627502441406250e+00 1.766536331176757812e+01
3.840000000000000000e+02 9.600000000000000000e+01 1.257507324218750000e+00 1.751634788513183594e+01
4.000000000000000000e+02 9.600000000000000000e+01 1.126592636108398438e+00 1.725260925292968750e+01
4.160000000000000000e+02 9.600000000000000000e+01 9.781818389892578125e-01 1.702324485778808594e+01
4.320000000000000000e+02 9.600000000000000000e+01 8.634300231933593750e-01 1.692699241638183594e+01
4.480000000000000000e+02 9.600000000000000000e+01 7.703781127929687500e-01 1.676075553894042969e+01
4.640000000000000000e+02 9.600000000000000000e+01 7.112789154052734375e-01 1.654934501647949219e+01
4.800000000000000000e+02 9.600000000000000000e+01 6.658344268798828125e-01 1.640600013732910156e+01
4.960000000000000000e+02 9.600000000000000000e+01 5.857620239257812500e-01 1.625981330871582031e+01
5.120000000000000000e+02 9.600000000000000000e+01 4.679489135742187500e-01 1.622016906738281250e+01
5.280000000000000000e+02 9.600000000000000000e+01 4.362010955810546875e-01 1.616232681274414062e+01
5.440000000000000000e+02 9.600000000000000000e+01 4.088630676269531250e-01 1.606530761718750000e+01
5.600000000000000000e+02 9.600000000000000000e+01 3.382110595703125000e-01 1.608561515808105469e+01
5.760000000000000000e+02 9.600000000000000000e+01 3.077201843261718750e-01 1.607182884216308594e+01
5.920000000000000000e+02 9.600000000000000000e+01 2.717018127441406250e-01 1.604259300231933594e+01
6.080000000000000000e+02 9.600000000000000000e+01 2.469139099121093750e-01 1.600560569763183594e+01
6.240000000000000000e+02 9.600000000000000000e+01 2.810630798339843750e-01 1.597815990447998047e+01
6.400000000000000000e+02 9.600000000000000000e+01 3.115653991699218750e-01 1.591541099548339844e+01
6.560000000000000000e+02 9.600000000000000000e+01 2.823867797851562500e-01 1.588839530944824219e+01
6.720000000000000000e+02 9.600000000000000000e+01 2.571620941162109375e-01 1.586801433563232422e+01
1.600000000000000000e+01 1.120000000000000000e+02 -2.209320068359375000e-01 1.665267372131347656e+01
3.200000000000000000e+01 1.120000000000000000e+02 -2.178916931152343750e-01 1.677277946472167969e+01
4.800000000000000000e+01 1.120000000000000000e+02 -1.856479644775390625e-01 1.686073303222656250e+01
6.400000000000000000e+01 1.120000000000000000e+02 -1.150417327880859375e-01 1.705680274963378906e+01
8.000000000000000000e+01 1.120000000000000000e+02 -6.088066101074218750e-02 1.736495780944824219e+01
9.600000000000000000e+01 1.120000000000000000e+02 3.405952453613281250e-02 1.780637550354003906e+01
1.120000000000000000e+02 1.120000000000000000e+02 1.610412597656250000e-01 1.834631538391113281e+01
1.280000000000000000e+02 1.120000000000000000e+02 3.345108032226562500e-01 1.907988929748535156e+01
1.440000000000000000e+02 1.120000000000000000e+02 4.680500030517578125e-01 2.013214302062988281e+01
1.600000000000000000e+02 1.120000000000000000e+02 8.216953277587890625e-01 2.110264396667480469e+01
1.760000000000000000e+02 1.120000000000000000e+02 1.424922585487365723e+00 1.939321899414062500e+01
1.920000000000000000e+02 1.120000000000000000e+02 2.378256320953369141e+00 1.912784385681152344e+01
2.080000000000000000e+02 1.120000000000000000e+02 6.460505127906799316e-01 1.938135147094726562e+01
2.240000000000000000e+02 1.120000000000000000e+02 2.726918935775756836e+00 2.328155517578125000e+01
2.400000000000000000e+02 1.120000000000000000e+02 3.845636367797851562e+00 2.028885459899902344e+01
2.560000000000000000e+02 1.120000000000000000e+02 3.553167343139648438e+00 1.969238281250000000e+01
2.720000000000000000e+02 1.120000000000000000e+02 4.252981185913085938e+00 1.933119201660156250e+01
2.880000000000000000e+02 1.120000000000000000e+02 2.759545087814331055e+00 1.948133087158203125e+01
3.040000000000000000e+02 1.120000000000000000e+02 1.656372070312500000e+00 2.011257171630859375e+01
3.200000000000000000e+02 1.120000000000000000e+02 1.598764419555664062e+00 1.952668190002441406e+01
3.360000000000000000e+02 1.120000000000000000e+02 1.417789459228515625e+00 1.885287094116210938e+01
3.520000000000000000e+02 1.120000000000000000e+02 1.231058120727539062e+00 1.829698371887207031e+01
3.680000000000000000e+02 1.120000000000000000e+02 1.086227416992187500e+00 1.794046020507812500e+01
3.840000000000000000e+02 1.120000000000000000e+02 9.519138336181640625e-01 1.768161392211914062e+01
4.000000000000000000e+02 1.120000000000000000e+02 8.586578369140625000e-01 1.736692619323730469e+01
4.160000000000000000e+02 1.120000000000000000e+02 7.490921020507812500e-01 1.710549545288085938e+01
4.320000000000000000e+02 1.120000000000000000e+02 6.772537231445312500e-01 1.699899482727050781e+01
4.480000000000000000e+02 1.120000000000000000e+02 5.797805786132812500e-01 1.686721229553222656e+01
4.640000000000000000e+02 1.120000000000000000e+02 5.272254943847656250e-01 1.671375656127929688e+01
4.800000000000000000e+02 1.120000000000000000e+02 4.949626922607421875e-01 1.655615425109863281e+01
4.960000000000000000e+02 1.120000000000000000e+02 4.486484527587890625e-01 1.635927963256835938e+01
5.120000000000000000e+02 1.120000000000000000e+02 3.667087554931640625e-01 1.627905082702636719e+01
5.280000000000000000e+02 1.120000000000000000e+02 3.157787322998046875e-01 1.619362449645996094e+01
5.440000000000000000e+02 1.120000000000000000e+02 3.265647888183593750e-01 1.613846206665039062e+01
5.600000000000000000e+02 1.120000000000000000e+02 3.148632049560546875e-01 1.612597274780273438e+01
5.760000000000000000e+02 1.120000000000000000e+02 3.013858795166015625e-01 1.610278511047363281e+01
5.920000000000000000e+02 1.120000000000000000e+02 2.673702239990234375e-01 1.606221199035644531e+01
6.080000000000000000e+02 1.120000000000000000e+02 2.476348876953125000e-01 1.601403617858886719e+01
6.240000000000000000e+02 1.120000000000000000e+02 2.611579895019531250e-01 1.598940563201904297e+01
6.400000000000000000e+02 1.120000000000000000e+02 2.700595855712890625e-01 1.592001056671142578e+01
6.560000000000000000e+02 1.120000000000000000e+02 2.561340332031250000e-01 1.582171630859375000e+01
6.720000000000000000e+02 1.120000000000000000e+02 2.420444488525390625e-01 1.581883144378662109e+01
1.600000000000000000e+01 1.280000000000000000e+02 -1.071109771728515625e-01 1.657872772216796875e+01
3.200000000000000000e+01 1.280000000000000000e+02 -7.996559143066406250e-02 1.668287086486816406e+01
4.800000000000000000e+01 1.280000000000000000e+02 -2.030181884765625000e-02 1.673031616210937500e+01
6.400000000000000000e+01 1.280000000000000000e+02 1.032962799072265625e-01 1.689564323425292969e+01